# vtk DataFile Version 3.0
Dislocation Network (BCC) exported from OpenDiS
ASCII
DATASET UNSTRUCTURED_GRID
POINTS 728 double
0.0000000000e+00 0.0000000000e+00 0.0000000000e+00
1.2000000000e+04 0.0000000000e+00 0.0000000000e+00
0.0000000000e+00 1.2000000000e+04 0.0000000000e+00
0.0000000000e+00 0.0000000000e+00 1.2000000000e+04
1.2000000000e+04 1.2000000000e+04 0.0000000000e+00
1.2000000000e+04 0.0000000000e+00 1.2000000000e+04
0.0000000000e+00 1.2000000000e+04 1.2000000000e+04
1.2000000000e+04 1.2000000000e+04 1.2000000000e+04
4.2566511666e+03 1.0123159711e+04 7.5789442325e+03
4.8838393423e+03 9.4959715350e+03 7.5789442325e+03
4.8838393423e+03 9.4959715350e+03 7.5789442325e+03
5.5110275180e+03 8.8687833593e+03 7.5789442325e+03
5.5110275180e+03 8.8687833593e+03 7.5789442325e+03
6.1382156937e+03 8.2415951836e+03 7.5789442325e+03
6.1382156937e+03 8.2415951836e+03 7.5789442325e+03
6.7654038695e+03 7.6144070078e+03 7.5789442325e+03
6.6921416540e+03 9.6854904041e+03 3.0249090614e+03
7.3906296350e+03 8.9870024232e+03 3.0249090614e+03
7.3906296350e+03 8.9870024232e+03 3.0249090614e+03
8.0891176159e+03 8.2885144422e+03 3.0249090614e+03
8.0891176159e+03 8.2885144422e+03 3.0249090614e+03
8.7876055969e+03 7.5900264613e+03 3.0249090614e+03
8.7876055969e+03 7.5900264613e+03 3.0249090614e+03
9.4860935778e+03 6.8915384803e+03 3.0249090614e+03
3.9408064618e+03 8.3885421788e+03 7.1509209606e+03
4.4535953278e+03 8.9013310448e+03 7.1509209606e+03
4.4535953278e+03 8.9013310448e+03 7.1509209606e+03
4.9663841939e+03 9.4141199108e+03 7.1509209606e+03
4.9663841939e+03 9.4141199108e+03 7.1509209606e+03
5.4791730599e+03 9.9269087768e+03 7.1509209606e+03
5.4791730599e+03 9.9269087768e+03 7.1509209606e+03
5.9919619259e+03 1.0439697643e+04 7.1509209606e+03
2.7972618062e+03 7.4573262642e+03 2.5105380488e+03
3.3075857903e+03 6.9470022802e+03 2.5105380488e+03
3.3075857903e+03 6.9470022802e+03 2.5105380488e+03
3.8179097743e+03 6.4366782961e+03 2.5105380488e+03
3.8179097743e+03 6.4366782961e+03 2.5105380488e+03
4.3282337583e+03 5.9263543121e+03 2.5105380488e+03
4.3282337583e+03 5.9263543121e+03 2.5105380488e+03
4.8385577423e+03 5.4160303281e+03 2.5105380488e+03
5.7609847978e+03 9.3570323159e+03 4.8362077450e+03
6.4071499954e+03 8.7108671183e+03 4.8362077450e+03
6.4071499954e+03 8.7108671183e+03 4.8362077450e+03
7.0533151930e+03 8.0647019207e+03 4.8362077450e+03
7.0533151930e+03 8.0647019207e+03 4.8362077450e+03
7.6994803906e+03 7.4185367231e+03 4.8362077450e+03
7.6994803906e+03 7.4185367231e+03 4.8362077450e+03
8.3456455882e+03 6.7723715255e+03 4.8362077450e+03
6.8884291941e+03 4.8957484453e+03 5.7337680298e+03
7.5577485853e+03 4.2264290541e+03 5.7337680298e+03
7.5577485853e+03 4.2264290541e+03 5.7337680298e+03
8.2270679766e+03 3.5571096628e+03 5.7337680298e+03
8.2270679766e+03 3.5571096628e+03 5.7337680298e+03
8.8963873678e+03 2.8877902716e+03 5.7337680298e+03
8.8963873678e+03 2.8877902716e+03 5.7337680298e+03
9.5657067591e+03 2.2184708803e+03 5.7337680298e+03
2.4962352155e+03 6.7263109049e+03 7.9580972473e+03
2.8652755760e+03 7.0953512654e+03 7.9580972473e+03
2.8652755760e+03 7.0953512654e+03 7.9580972473e+03
3.2343159365e+03 7.4643916259e+03 7.9580972473e+03
3.2343159365e+03 7.4643916259e+03 7.9580972473e+03
3.6033562970e+03 7.8334319864e+03 7.9580972473e+03
3.6033562970e+03 7.8334319864e+03 7.9580972473e+03
3.9723966576e+03 8.2024723470e+03 7.9580972473e+03
4.0261775469e+03 6.6939465916e+03 3.5157708727e+03
4.4949275976e+03 6.2251965409e+03 3.5157708727e+03
4.4949275976e+03 6.2251965409e+03 3.5157708727e+03
4.9636776483e+03 5.7564464902e+03 3.5157708727e+03
4.9636776483e+03 5.7564464902e+03 3.5157708727e+03
5.4324276990e+03 5.2876964395e+03 3.5157708727e+03
5.4324276990e+03 5.2876964395e+03 3.5157708727e+03
5.9011777497e+03 4.8189463888e+03 3.5157708727e+03
5.0066642512e+03 4.6142499510e+03 7.3585119575e+03
5.4061518305e+03 4.2147623717e+03 7.3585119575e+03
5.4061518305e+03 4.2147623717e+03 7.3585119575e+03
5.8056394098e+03 3.8152747924e+03 7.3585119575e+03
5.8056394098e+03 3.8152747924e+03 7.3585119575e+03
6.2051269891e+03 3.4157872131e+03 7.3585119575e+03
6.2051269891e+03 3.4157872131e+03 7.3585119575e+03
6.6046145684e+03 3.0162996338e+03 7.3585119575e+03
6.3062216359e+03 3.2030339509e+03 8.6580784112e+03
6.9541712259e+03 3.8509835410e+03 8.6580784112e+03
6.9541712259e+03 3.8509835410e+03 8.6580784112e+03
7.6021208160e+03 4.4989331311e+03 8.6580784112e+03
7.6021208160e+03 4.4989331311e+03 8.6580784112e+03
8.2500704061e+03 5.1468827211e+03 8.6580784112e+03
8.2500704061e+03 5.1468827211e+03 8.6580784112e+03
8.8980199962e+03 5.7948323112e+03 8.6580784112e+03
6.3759881479e+03 5.5827859471e+03 7.4599640318e+03
5.7379075901e+03 4.9447053893e+03 7.4599640318e+03
5.7379075901e+03 4.9447053893e+03 7.4599640318e+03
5.0998270322e+03 4.3066248314e+03 7.4599640318e+03
5.0998270322e+03 4.3066248314e+03 7.4599640318e+03
4.4617464744e+03 3.6685442736e+03 7.4599640318e+03
4.4617464744e+03 3.6685442736e+03 7.4599640318e+03
3.8236659166e+03 3.0304637158e+03 7.4599640318e+03
1.2104349312e+03 9.1438582468e+03 7.3188068527e+03
1.6346665446e+03 8.7196266334e+03 7.3188068527e+03
1.6346665446e+03 8.7196266334e+03 7.3188068527e+03
2.0588981580e+03 8.2953950200e+03 7.3188068527e+03
2.0588981580e+03 8.2953950200e+03 7.3188068527e+03
2.4831297714e+03 7.8711634066e+03 7.3188068527e+03
2.4831297714e+03 7.8711634066e+03 7.3188068527e+03
2.9073613848e+03 7.4469317932e+03 7.3188068527e+03
7.0400982459e+03 6.8770602066e+03 6.5499295676e+03
7.6429652470e+03 6.2741932054e+03 6.5499295676e+03
7.6429652470e+03 6.2741932054e+03 6.5499295676e+03
8.2458322482e+03 5.6713262043e+03 6.5499295676e+03
8.2458322482e+03 5.6713262043e+03 6.5499295676e+03
8.8486992493e+03 5.0684592032e+03 6.5499295676e+03
8.8486992493e+03 5.0684592032e+03 6.5499295676e+03
9.4515662504e+03 4.4655922020e+03 6.5499295676e+03
6.5591319215e+03 6.5568614220e+03 6.5218888518e+03
6.9531778079e+03 6.1628155356e+03 6.5218888518e+03
6.9531778079e+03 6.1628155356e+03 6.5218888518e+03
7.3472236943e+03 5.7687696491e+03 6.5218888518e+03
7.3472236943e+03 5.7687696491e+03 6.5218888518e+03
7.7412695807e+03 5.3747237627e+03 6.5218888518e+03
7.7412695807e+03 5.3747237627e+03 6.5218888518e+03
8.1353154672e+03 4.9806778763e+03 6.5218888518e+03
5.8297038991e+03 7.6766778661e+03 6.4736572860e+03
6.4537252296e+03 7.0526565357e+03 6.4736572860e+03
6.4537252296e+03 7.0526565357e+03 6.4736572860e+03
7.0777465600e+03 6.4286352053e+03 6.4736572860e+03
7.0777465600e+03 6.4286352053e+03 6.4736572860e+03
7.7017678904e+03 5.8046138748e+03 6.4736572860e+03
7.7017678904e+03 5.8046138748e+03 6.4736572860e+03
8.3257892209e+03 5.1805925444e+03 6.4736572860e+03
4.7648408329e+03 2.9877791016e+03 5.2682291498e+03
5.1292899734e+03 3.3522282421e+03 5.2682291498e+03
5.1292899734e+03 3.3522282421e+03 5.2682291498e+03
5.4937391139e+03 3.7166773826e+03 5.2682291498e+03
5.4937391139e+03 3.7166773826e+03 5.2682291498e+03
5.8581882544e+03 4.0811265231e+03 5.2682291498e+03
5.8581882544e+03 4.0811265231e+03 5.2682291498e+03
6.2226373948e+03 4.4455756635e+03 5.2682291498e+03
2.5609620055e+03 3.7769758149e+03 4.2510711362e+03
3.2162389462e+03 3.1216988742e+03 4.2510711362e+03
3.2162389462e+03 3.1216988742e+03 4.2510711362e+03
3.8715158869e+03 2.4664219335e+03 4.2510711362e+03
3.8715158869e+03 2.4664219335e+03 4.2510711362e+03
4.5267928276e+03 1.8111449928e+03 4.2510711362e+03
4.5267928276e+03 1.8111449928e+03 4.2510711362e+03
5.1820697683e+03 1.1558680521e+03 4.2510711362e+03
5.2811047814e+03 7.0960332355e+03 7.3145083226e+03
5.8686810001e+03 7.6836094542e+03 7.3145083226e+03
5.8686810001e+03 7.6836094542e+03 7.3145083226e+03
6.4562572187e+03 8.2711856729e+03 7.3145083226e+03
6.4562572187e+03 8.2711856729e+03 7.3145083226e+03
7.0438334374e+03 8.8587618915e+03 7.3145083226e+03
7.0438334374e+03 8.8587618915e+03 7.3145083226e+03
7.6314096561e+03 9.4463381102e+03 7.3145083226e+03
7.5176973906e+03 4.3302490460e+03 2.1816965851e+03
8.0149302340e+03 3.8330162026e+03 2.1816965851e+03
8.0149302340e+03 3.8330162026e+03 2.1816965851e+03
8.5121630773e+03 3.3357833593e+03 2.1816965851e+03
8.5121630773e+03 3.3357833593e+03 2.1816965851e+03
9.0093959207e+03 2.8385505159e+03 2.1816965851e+03
9.0093959207e+03 2.8385505159e+03 2.1816965851e+03
9.5066287640e+03 2.3413176726e+03 2.1816965851e+03
4.4771258656e+03 4.5080662087e+03 6.0083582008e+03
5.0860718538e+03 3.8991202205e+03 6.0083582008e+03
5.0860718538e+03 3.8991202205e+03 6.0083582008e+03
5.6950178420e+03 3.2901742323e+03 6.0083582008e+03
5.6950178420e+03 3.2901742323e+03 6.0083582008e+03
6.3039638302e+03 2.6812282440e+03 6.0083582008e+03
6.3039638302e+03 2.6812282440e+03 6.0083582008e+03
6.9129098185e+03 2.0722822558e+03 6.0083582008e+03
6.7557552988e+03 6.3840579065e+03 5.0481698088e+03
7.1631591497e+03 5.9766540555e+03 5.0481698088e+03
7.1631591497e+03 5.9766540555e+03 5.0481698088e+03
7.5705630006e+03 5.5692502046e+03 5.0481698088e+03
7.5705630006e+03 5.5692502046e+03 5.0481698088e+03
7.9779668516e+03 5.1618463537e+03 5.0481698088e+03
7.9779668516e+03 5.1618463537e+03 5.0481698088e+03
8.3853707025e+03 4.7544425027e+03 5.0481698088e+03
3.7417170076e+03 1.5484154777e+03 2.9440472170e+03
4.3181089460e+03 2.1248074161e+03 2.9440472170e+03
4.3181089460e+03 2.1248074161e+03 2.9440472170e+03
4.8945008844e+03 2.7011993545e+03 2.9440472170e+03
4.8945008844e+03 2.7011993545e+03 2.9440472170e+03
5.4708928228e+03 3.2775912930e+03 2.9440472170e+03
5.4708928228e+03 3.2775912930e+03 2.9440472170e+03
6.0472847613e+03 3.8539832314e+03 2.9440472170e+03
7.8813743831e+03 8.9849282131e+03 4.1269596917e+03
8.5750099544e+03 8.2912926418e+03 4.1269596917e+03
8.5750099544e+03 8.2912926418e+03 4.1269596917e+03
9.2686455257e+03 7.5976570705e+03 4.1269596917e+03
9.2686455257e+03 7.5976570705e+03 4.1269596917e+03
9.9622810970e+03 6.9040214992e+03 4.1269596917e+03
9.9622810970e+03 6.9040214992e+03 4.1269596917e+03
1.0655916668e+04 6.2103859279e+03 4.1269596917e+03
6.4773546870e+03 6.8526588434e+03 4.1779324948e+03
[...]
CELL_DATA 361

VECTORS Burgers double
0.0 0.0 0.0
5.7735026919e-01 5.7735026919e-01 5.7735026919e-01
5.7735026919e-01 5.7735026919e-01 5.7735026919e-01
5.7735026919e-01 5.7735026919e-01 5.7735026919e-01
5.7735026919e-01 5.7735026919e-01 5.7735026919e-01
5.7735026919e-01 5.7735026919e-01 5.7735026919e-01
5.7735026919e-01 5.7735026919e-01 5.7735026919e-01
5.7735026919e-01 5.7735026919e-01 5.7735026919e-01
5.7735026919e-01 5.7735026919e-01 5.7735026919e-01
-5.7735026919e-01 5.7735026919e-01 5.7735026919e-01
-5.7735026919e-01 5.7735026919e-01 5.7735026919e-01
-5.7735026919e-01 5.7735026919e-01 5.7735026919e-01
-5.7735026919e-01 5.7735026919e-01 5.7735026919e-01
5.7735026919e-01 5.7735026919e-01 -5.7735026919e-01
5.7735026919e-01 5.7735026919e-01 -5.7735026919e-01
5.7735026919e-01 5.7735026919e-01 -5.7735026919e-01
5.7735026919e-01 5.7735026919e-01 -5.7735026919e-01
5.7735026919e-01 5.7735026919e-01 5.7735026919e-01
5.7735026919e-01 5.7735026919e-01 5.7735026919e-01
5.7735026919e-01 5.7735026919e-01 5.7735026919e-01
5.7735026919e-01 5.7735026919e-01 5.7735026919e-01
5.7735026919e-01 5.7735026919e-01 -5.7735026919e-01
5.7735026919e-01 5.7735026919e-01 -5.7735026919e-01
5.7735026919e-01 5.7735026919e-01 -5.7735026919e-01
5.7735026919e-01 5.7735026919e-01 -5.7735026919e-01
-5.7735026919e-01 5.7735026919e-01 5.7735026919e-01
-5.7735026919e-01 5.7735026919e-01 5.7735026919e-01
-5.7735026919e-01 5.7735026919e-01 5.7735026919e-01
-5.7735026919e-01 5.7735026919e-01 5.7735026919e-01
5.7735026919e-01 5.7735026919e-01 -5.7735026919e-01
5.7735026919e-01 5.7735026919e-01 -5.7735026919e-01
5.7735026919e-01 5.7735026919e-01 -5.7735026919e-01
5.7735026919e-01 5.7735026919e-01 -5.7735026919e-01
5.7735026919e-01 5.7735026919e-01 -5.7735026919e-01
5.7735026919e-01 5.7735026919e-01 -5.7735026919e-01
5.7735026919e-01 5.7735026919e-01 -5.7735026919e-01
5.7735026919e-01 5.7735026919e-01 -5.7735026919e-01
-5.7735026919e-01 5.7735026919e-01 5.7735026919e-01
-5.7735026919e-01 5.7735026919e-01 5.7735026919e-01
-5.7735026919e-01 5.7735026919e-01 5.7735026919e-01
-5.7735026919e-01 5.7735026919e-01 5.7735026919e-01
5.7735026919e-01 -5.7735026919e-01 5.7735026919e-01
5.7735026919e-01 -5.7735026919e-01 5.7735026919e-01
5.7735026919e-01 -5.7735026919e-01 5.7735026919e-01
5.7735026919e-01 -5.7735026919e-01 5.7735026919e-01
5.7735026919e-01 5.7735026919e-01 5.7735026919e-01
5.7735026919e-01 5.7735026919e-01 5.7735026919e-01
5.7735026919e-01 5.7735026919e-01 5.7735026919e-01
5.7735026919e-01 5.7735026919e-01 5.7735026919e-01
5.7735026919e-01 5.7735026919e-01 5.7735026919e-01
5.7735026919e-01 5.7735026919e-01 5.7735026919e-01
5.7735026919e-01 5.7735026919e-01 5.7735026919e-01
5.7735026919e-01 5.7735026919e-01 5.7735026919e-01
5.7735026919e-01 5.7735026919e-01 5.7735026919e-01
5.7735026919e-01 5.7735026919e-01 5.7735026919e-01
5.7735026919e-01 5.7735026919e-01 5.7735026919e-01
5.7735026919e-01 5.7735026919e-01 5.7735026919e-01
5.7735026919e-01 5.7735026919e-01 -5.7735026919e-01
5.7735026919e-01 5.7735026919e-01 -5.7735026919e-01
5.7735026919e-01 5.7735026919e-01 -5.7735026919e-01
5.7735026919e-01 5.7735026919e-01 -5.7735026919e-01
-5.7735026919e-01 5.7735026919e-01 5.7735026919e-01
-5.7735026919e-01 5.7735026919e-01 5.7735026919e-01
-5.7735026919e-01 5.7735026919e-01 5.7735026919e-01
-5.7735026919e-01 5.7735026919e-01 5.7735026919e-01
5.7735026919e-01 5.7735026919e-01 -5.7735026919e-01
5.7735026919e-01 5.7735026919e-01 -5.7735026919e-01
5.7735026919e-01 5.7735026919e-01 -5.7735026919e-01
5.7735026919e-01 5.7735026919e-01 -5.7735026919e-01
-5.7735026919e-01 5.7735026919e-01 5.7735026919e-01
-5.7735026919e-01 5.7735026919e-01 5.7735026919e-01
-5.7735026919e-01 5.7735026919e-01 5.7735026919e-01
-5.7735026919e-01 5.7735026919e-01 5.7735026919e-01
5.7735026919e-01 5.7735026919e-01 5.7735026919e-01
5.7735026919e-01 5.7735026919e-01 5.7735026919e-01
5.7735026919e-01 5.7735026919e-01 5.7735026919e-01
5.7735026919e-01 5.7735026919e-01 5.7735026919e-01
5.7735026919e-01 5.7735026919e-01 5.7735026919e-01
5.7735026919e-01 5.7735026919e-01 5.7735026919e-01
5.7735026919e-01 5.7735026919e-01 5.7735026919e-01
5.7735026919e-01 5.7735026919e-01 5.7735026919e-01
5.7735026919e-01 5.7735026919e-01 5.7735026919e-01
5.7735026919e-01 5.7735026919e-01 5.7735026919e-01
5.7735026919e-01 5.7735026919e-01 5.7735026919e-01
5.7735026919e-01 5.7735026919e-01 5.7735026919e-01
-5.7735026919e-01 5.7735026919e-01 5.7735026919e-01
-5.7735026919e-01 5.7735026919e-01 5.7735026919e-01
-5.7735026919e-01 5.7735026919e-01 5.7735026919e-01
-5.7735026919e-01 5.7735026919e-01 5.7735026919e-01
5.7735026919e-01 5.7735026919e-01 -5.7735026919e-01
5.7735026919e-01 5.7735026919e-01 -5.7735026919e-01
5.7735026919e-01 5.7735026919e-01 -5.7735026919e-01
5.7735026919e-01 5.7735026919e-01 -5.7735026919e-01
5.7735026919e-01 5.7735026919e-01 -5.7735026919e-01
5.7735026919e-01 5.7735026919e-01 -5.7735026919e-01
5.7735026919e-01 5.7735026919e-01 -5.7735026919e-01
5.7735026919e-01 5.7735026919e-01 -5.7735026919e-01
5.7735026919e-01 -5.7735026919e-01 5.7735026919e-01
5.7735026919e-01 -5.7735026919e-01 5.7735026919e-01
5.7735026919e-01 -5.7735026919e-01 5.7735026919e-01
5.7735026919e-01 -5.7735026919e-01 5.7735026919e-01
-5.7735026919e-01 5.7735026919e-01 5.7735026919e-01
-5.7735026919e-01 5.7735026919e-01 5.7735026919e-01
-5.7735026919e-01 5.7735026919e-01 5.7735026919e-01
-5.7735026919e-01 5.7735026919e-01 5.7735026919e-01
5.7735026919e-01 5.7735026919e-01 5.7735026919e-01
5.7735026919e-01 5.7735026919e-01 5.7735026919e-01
5.7735026919e-01 5.7735026919e-01 5.7735026919e-01
5.7735026919e-01 5.7735026919e-01 5.7735026919e-01
5.7735026919e-01 -5.7735026919e-01 5.7735026919e-01
5.7735026919e-01 -5.7735026919e-01 5.7735026919e-01
5.7735026919e-01 -5.7735026919e-01 5.7735026919e-01
5.7735026919e-01 -5.7735026919e-01 5.7735026919e-01
5.7735026919e-01 5.7735026919e-01 -5.7735026919e-01
5.7735026919e-01 5.7735026919e-01 -5.7735026919e-01
5.7735026919e-01 5.7735026919e-01 -5.7735026919e-01
5.7735026919e-01 5.7735026919e-01 -5.7735026919e-01
5.7735026919e-01 5.7735026919e-01 5.7735026919e-01
5.7735026919e-01 5.7735026919e-01 5.7735026919e-01
5.7735026919e-01 5.7735026919e-01 5.7735026919e-01
5.7735026919e-01 5.7735026919e-01 5.7735026919e-01
5.7735026919e-01 5.7735026919e-01 5.7735026919e-01
5.7735026919e-01 5.7735026919e-01 5.7735026919e-01
5.7735026919e-01 5.7735026919e-01 5.7735026919e-01
5.7735026919e-01 5.7735026919e-01 5.7735026919e-01
5.7735026919e-01 5.7735026919e-01 5.7735026919e-01
5.7735026919e-01 5.7735026919e-01 5.7735026919e-01
5.7735026919e-01 5.7735026919e-01 5.7735026919e-01
5.7735026919e-01 5.7735026919e-01 5.7735026919e-01
5.7735026919e-01 5.7735026919e-01 -5.7735026919e-01
5.7735026919e-01 5.7735026919e-01 -5.7735026919e-01
5.7735026919e-01 5.7735026919e-01 -5.7735026919e-01
5.7735026919e-01 5.7735026919e-01 -5.7735026919e-01
-5.7735026919e-01 5.7735026919e-01 5.7735026919e-01
-5.7735026919e-01 5.7735026919e-01 5.7735026919e-01
-5.7735026919e-01 5.7735026919e-01 5.7735026919e-01
-5.7735026919e-01 5.7735026919e-01 5.7735026919e-01
5.7735026919e-01 5.7735026919e-01 5.7735026919e-01
5.7735026919e-01 5.7735026919e-01 5.7735026919e-01
5.7735026919e-01 5.7735026919e-01 5.7735026919e-01
5.7735026919e-01 5.7735026919e-01 5.7735026919e-01
5.7735026919e-01 -5.7735026919e-01 5.7735026919e-01
5.7735026919e-01 -5.7735026919e-01 5.7735026919e-01
5.7735026919e-01 -5.7735026919e-01 5.7735026919e-01
5.7735026919e-01 -5.7735026919e-01 5.7735026919e-01
-5.7735026919e-01 5.7735026919e-01 5.7735026919e-01
-5.7735026919e-01 5.7735026919e-01 5.7735026919e-01
-5.7735026919e-01 5.7735026919e-01 5.7735026919e-01
-5.7735026919e-01 5.7735026919e-01 5.7735026919e-01
5.7735026919e-01 5.7735026919e-01 -5.7735026919e-01
5.7735026919e-01 5.7735026919e-01 -5.7735026919e-01
5.7735026919e-01 5.7735026919e-01 -5.7735026919e-01
5.7735026919e-01 5.7735026919e-01 -5.7735026919e-01
5.7735026919e-01 -5.7735026919e-01 5.7735026919e-01
5.7735026919e-01 -5.7735026919e-01 5.7735026919e-01
5.7735026919e-01 -5.7735026919e-01 5.7735026919e-01
5.7735026919e-01 -5.7735026919e-01 5.7735026919e-01
5.7735026919e-01 5.7735026919e-01 5.7735026919e-01
5.7735026919e-01 5.7735026919e-01 5.7735026919e-01
5.7735026919e-01 5.7735026919e-01 5.7735026919e-01
5.7735026919e-01 5.7735026919e-01 5.7735026919e-01
5.7735026919e-01 5.7735026919e-01 5.7735026919e-01
5.7735026919e-01 5.7735026919e-01 5.7735026919e-01
5.7735026919e-01 5.7735026919e-01 5.7735026919e-01
5.7735026919e-01 5.7735026919e-01 5.7735026919e-01
5.7735026919e-01 5.7735026919e-01 -5.7735026919e-01
5.7735026919e-01 5.7735026919e-01 -5.7735026919e-01
5.7735026919e-01 5.7735026919e-01 -5.7735026919e-01
5.7735026919e-01 5.7735026919e-01 -5.7735026919e-01
5.7735026919e-01 5.7735026919e-01 5.7735026919e-01
5.7735026919e-01 5.7735026919e-01 5.7735026919e-01
5.7735026919e-01 5.7735026919e-01 5.7735026919e-01
5.7735026919e-01 5.7735026919e-01 5.7735026919e-01
5.7735026919e-01 5.7735026919e-01 -5.7735026919e-01
5.7735026919e-01 5.7735026919e-01 -5.7735026919e-01
5.7735026919e-01 5.7735026919e-01 -5.7735026919e-01
5.7735026919e-01 5.7735026919e-01 -5.7735026919e-01
-5.7735026919e-01 5.7735026919e-01 5.7735026919e-01
-5.7735026919e-01 5.7735026919e-01 5.7735026919e-01
-5.7735026919e-01 5.7735026919e-01 5.7735026919e-01
-5.7735026919e-01 5.7735026919e-01 5.7735026919e-01
5.7735026919e-01 -5.7735026919e-01 5.7735026919e-01
5.7735026919e-01 -5.7735026919e-01 5.7735026919e-01
5.7735026919e-01 -5.7735026919e-01 5.7735026919e-01
5.7735026919e-01 -5.7735026919e-01 5.7735026919e-01
5.7735026919e-01 5.7735026919e-01 -5.7735026919e-01
5.7735026919e-01 5.7735026919e-01 -5.7735026919e-01
5.7735026919e-01 5.7735026919e-01 -5.7735026919e-01
5.7735026919e-01 5.7735026919e-01 -5.7735026919e-01
5.7735026919e-01 -5.7735026919e-01 5.7735026919e-01
5.7735026919e-01 -5.7735026919e-01 5.7735026919e-01
5.7735026919e-01 -5.7735026919e-01 5.7735026919e-01
5.7735026919e-01 -5.7735026919e-01 5.7735026919e-01
5.7735026919e-01 5.7735026919e-01 -5.7735026919e-01
5.7735026919e-01 5.7735026919e-01 -5.7735026919e-01
5.7735026919e-01 5.7735026919e-01 -5.7735026919e-01
5.7735026919e-01 5.7735026919e-01 -5.7735026919e-01
-5.7735026919e-01 5.7735026919e-01 5.7735026919e-01
-5.7735026919e-01 5.7735026919e-01 5.7735026919e-01
-5.7735026919e-01 5.7735026919e-01 5.7735026919e-01
-5.7735026919e-01 5.7735026919e-01 5.7735026919e-01
5.7735026919e-01 5.7735026919e-01 -5.7735026919e-01
5.7735026919e-01 5.7735026919e-01 -5.7735026919e-01
5.7735026919e-01 5.7735026919e-01 -5.7735026919e-01
5.7735026919e-01 5.7735026919e-01 -5.7735026919e-01
5.7735026919e-01 5.7735026919e-01 5.7735026919e-01
5.7735026919e-01 5.7735026919e-01 5.7735026919e-01
5.7735026919e-01 5.7735026919e-01 5.7735026919e-01
5.7735026919e-01 5.7735026919e-01 5.7735026919e-01
5.7735026919e-01 5.7735026919e-01 -5.7735026919e-01
5.7735026919e-01 5.7735026919e-01 -5.7735026919e-01
5.7735026919e-01 5.7735026919e-01 -5.7735026919e-01
5.7735026919e-01 5.7735026919e-01 -5.7735026919e-01
5.7735026919e-01 5.7735026919e-01 5.7735026919e-01
5.7735026919e-01 5.7735026919e-01 5.7735026919e-01
5.7735026919e-01 5.7735026919e-01 5.7735026919e-01
5.7735026919e-01 5.7735026919e-01 5.7735026919e-01
-5.7735026919e-01 5.7735026919e-01 5.7735026919e-01
-5.7735026919e-01 5.7735026919e-01 5.7735026919e-01
-5.7735026919e-01 5.7735026919e-01 5.7735026919e-01
-5.7735026919e-01 5.7735026919e-01 5.7735026919e-01
-5.7735026919e-01 5.7735026919e-01 5.7735026919e-01
-5.7735026919e-01 5.7735026919e-01 5.7735026919e-01
-5.7735026919e-01 5.7735026919e-01 5.7735026919e-01
-5.7735026919e-01 5.7735026919e-01 5.7735026919e-01
5.7735026919e-01 5.7735026919e-01 -5.7735026919e-01
5.7735026919e-01 5.7735026919e-01 -5.7735026919e-01
5.7735026919e-01 5.7735026919e-01 -5.7735026919e-01
5.7735026919e-01 5.7735026919e-01 -5.7735026919e-01
5.7735026919e-01 5.7735026919e-01 -5.7735026919e-01
5.7735026919e-01 5.7735026919e-01 -5.7735026919e-01
5.7735026919e-01 5.7735026919e-01 -5.7735026919e-01
5.7735026919e-01 5.7735026919e-01 -5.7735026919e-01
5.7735026919e-01 -5.7735026919e-01 5.7735026919e-01
5.7735026919e-01 -5.7735026919e-01 5.7735026919e-01
5.7735026919e-01 -5.7735026919e-01 5.7735026919e-01
5.7735026919e-01 -5.7735026919e-01 5.7735026919e-01
5.7735026919e-01 5.7735026919e-01 5.7735026919e-01
5.7735026919e-01 5.7735026919e-01 5.7735026919e-01
5.7735026919e-01 5.7735026919e-01 5.7735026919e-01
5.7735026919e-01 5.7735026919e-01 5.7735026919e-01
5.7735026919e-01 -5.7735026919e-01 5.7735026919e-01
5.7735026919e-01 -5.7735026919e-01 5.7735026919e-01
5.7735026919e-01 -5.7735026919e-01 5.7735026919e-01
5.7735026919e-01 -5.7735026919e-01 5.7735026919e-01
5.7735026919e-01 -5.7735026919e-01 5.7735026919e-01
5.7735026919e-01 -5.7735026919e-01 5.7735026919e-01
5.7735026919e-01 -5.7735026919e-01 5.7735026919e-01
5.7735026919e-01 -5.7735026919e-01 5.7735026919e-01
5.7735026919e-01 5.7735026919e-01 5.7735026919e-01
5.7735026919e-01 5.7735026919e-01 5.7735026919e-01
5.7735026919e-01 5.7735026919e-01 5.7735026919e-01
5.7735026919e-01 5.7735026919e-01 5.7735026919e-01
5.7735026919e-01 5.7735026919e-01 5.7735026919e-01
5.7735026919e-01 5.7735026919e-01 5.7735026919e-01
5.7735026919e-01 5.7735026919e-01 5.7735026919e-01
5.7735026919e-01 5.7735026919e-01 5.7735026919e-01
-5.7735026919e-01 5.7735026919e-01 5.7735026919e-01
-5.7735026919e-01 5.7735026919e-01 5.7735026919e-01
-5.7735026919e-01 5.7735026919e-01 5.7735026919e-01
-5.7735026919e-01 5.7735026919e-01 5.7735026919e-01
5.7735026919e-01 5.7735026919e-01 -5.7735026919e-01
5.7735026919e-01 5.7735026919e-01 -5.7735026919e-01
5.7735026919e-01 5.7735026919e-01 -5.7735026919e-01
5.7735026919e-01 5.7735026919e-01 -5.7735026919e-01
5.7735026919e-01 -5.7735026919e-01 5.7735026919e-01
5.7735026919e-01 -5.7735026919e-01 5.7735026919e-01
5.7735026919e-01 -5.7735026919e-01 5.7735026919e-01
5.7735026919e-01 -5.7735026919e-01 5.7735026919e-01
5.7735026919e-01 5.7735026919e-01 5.7735026919e-01
5.7735026919e-01 5.7735026919e-01 5.7735026919e-01
5.7735026919e-01 5.7735026919e-01 5.7735026919e-01
5.7735026919e-01 5.7735026919e-01 5.7735026919e-01
-5.7735026919e-01 5.7735026919e-01 5.7735026919e-01
-5.7735026919e-01 5.7735026919e-01 5.7735026919e-01
-5.7735026919e-01 5.7735026919e-01 5.7735026919e-01
-5.7735026919e-01 5.7735026919e-01 5.7735026919e-01
-5.7735026919e-01 5.7735026919e-01 5.7735026919e-01
-5.7735026919e-01 5.7735026919e-01 5.7735026919e-01
-5.7735026919e-01 5.7735026919e-01 5.7735026919e-01
-5.7735026919e-01 5.7735026919e-01 5.7735026919e-01
5.7735026919e-01 5.7735026919e-01 -5.7735026919e-01
5.7735026919e-01 5.7735026919e-01 -5.7735026919e-01
5.7735026919e-01 5.7735026919e-01 -5.7735026919e-01
5.7735026919e-01 5.7735026919e-01 -5.7735026919e-01
5.7735026919e-01 5.7735026919e-01 -5.7735026919e-01
5.7735026919e-01 5.7735026919e-01 -5.7735026919e-01
5.7735026919e-01 5.7735026919e-01 -5.7735026919e-01
5.7735026919e-01 5.7735026919e-01 -5.7735026919e-01
5.7735026919e-01 5.7735026919e-01 -5.7735026919e-01
5.7735026919e-01 5.7735026919e-01 -5.7735026919e-01
5.7735026919e-01 5.7735026919e-01 -5.7735026919e-01
5.7735026919e-01 5.7735026919e-01 -5.7735026919e-01
5.7735026919e-01 -5.7735026919e-01 5.7735026919e-01
5.7735026919e-01 -5.7735026919e-01 5.7735026919e-01
5.7735026919e-01 -5.7735026919e-01 5.7735026919e-01
5.7735026919e-01 -5.7735026919e-01 5.7735026919e-01
5.7735026919e-01 -5.7735026919e-01 5.7735026919e-01
5.7735026919e-01 -5.7735026919e-01 5.7735026919e-01
5.7735026919e-01 -5.7735026919e-01 5.7735026919e-01
5.7735026919e-01 -5.7735026919e-01 5.7735026919e-01
5.7735026919e-01 -5.7735026919e-01 5.7735026919e-01
5.7735026919e-01 -5.7735026919e-01 5.7735026919e-01
5.7735026919e-01 -5.7735026919e-01 5.7735026919e-01
5.7735026919e-01 -5.7735026919e-01 5.7735026919e-01
5.7735026919e-01 5.7735026919e-01 -5.7735026919e-01
5.7735026919e-01 5.7735026919e-01 -5.7735026919e-01
5.7735026919e-01 5.7735026919e-01 -5.7735026919e-01
5.7735026919e-01 5.7735026919e-01 -5.7735026919e-01
5.7735026919e-01 5.7735026919e-01 -5.7735026919e-01
5.7735026919e-01 5.7735026919e-01 -5.7735026919e-01
5.7735026919e-01 5.7735026919e-01 -5.7735026919e-01
5.7735026919e-01 5.7735026919e-01 -5.7735026919e-01
5.7735026919e-01 -5.7735026919e-01 5.7735026919e-01
5.7735026919e-01 -5.7735026919e-01 5.7735026919e-01
5.7735026919e-01 -5.7735026919e-01 5.7735026919e-01
5.7735026919e-01 -5.7735026919e-01 5.7735026919e-01
5.7735026919e-01 -5.7735026919e-01 5.7735026919e-01
5.7735026919e-01 -5.7735026919e-01 5.7735026919e-01
5.7735026919e-01 -5.7735026919e-01 5.7735026919e-01
5.7735026919e-01 -5.7735026919e-01 5.7735026919e-01
-5.7735026919e-01 5.7735026919e-01 5.7735026919e-01
-5.7735026919e-01 5.7735026919e-01 5.7735026919e-01
-5.7735026919e-01 5.7735026919e-01 5.7735026919e-01
-5.7735026919e-01 5.7735026919e-01 5.7735026919e-01
5.7735026919e-01 -5.7735026919e-01 5.7735026919e-01
5.7735026919e-01 -5.7735026919e-01 5.7735026919e-01
5.7735026919e-01 -5.7735026919e-01 5.7735026919e-01
5.7735026919e-01 -5.7735026919e-01 5.7735026919e-01
5.7735026919e-01 -5.7735026919e-01 5.7735026919e-01
5.7735026919e-01 -5.7735026919e-01 5.7735026919e-01
5.7735026919e-01 -5.7735026919e-01 5.7735026919e-01
5.7735026919e-01 -5.7735026919e-01 5.7735026919e-01
-5.7735026919e-01 5.7735026919e-01 5.7735026919e-01
-5.7735026919e-01 5.7735026919e-01 5.7735026919e-01
-5.7735026919e-01 5.7735026919e-01 5.7735026919e-01
-5.7735026919e-01 5.7735026919e-01 5.7735026919e-01
-5.7735026919e-01 5.7735026919e-01 5.7735026919e-01
-5.7735026919e-01 5.7735026919e-01 5.7735026919e-01
-5.7735026919e-01 5.7735026919e-01 5.7735026919e-01
-5.7735026919e-01 5.7735026919e-01 5.7735026919e-01
5.7735026919e-01 5.7735026919e-01 -5.7735026919e-01
5.7735026919e-01 5.7735026919e-01 -5.7735026919e-01
5.7735026919e-01 5.7735026919e-01 -5.7735026919e-01
5.7735026919e-01 5.7735026919e-01 -5.7735026919e-01
5.7735026919e-01 5.7735026919e-01 5.7735026919e-01
5.7735026919e-01 5.7735026919e-01 5.7735026919e-01
5.7735026919e-01 5.7735026919e-01 5.7735026919e-01
5.7735026919e-01 5.7735026919e-01 5.7735026919e-01
5.7735026919e-01 5.7735026919e-01 5.7735026919e-01
5.7735026919e-01 5.7735026919e-01 5.7735026919e-01
5.7735026919e-01 5.7735026919e-01 5.7735026919e-01
5.7735026919e-01 5.7735026919e-01 5.7735026919e-01
5.7735026919e-01 5.7735026919e-01 5.7735026919e-01
5.7735026919e-01 5.7735026919e-01 5.7735026919e-01
5.7735026919e-01 5.7735026919e-01 5.7735026919e-01
5.7735026919e-01 5.7735026919e-01 5.7735026919e-01
-5.7735026919e-01 5.7735026919e-01 5.7735026919e-01
-5.7735026919e-01 5.7735026919e-01 5.7735026919e-01
-5.7735026919e-01 5.7735026919e-01 5.7735026919e-01
-5.7735026919e-01 5.7735026919e-01 5.7735026919e-01

VECTORS Planes double
0.0 0.0 0.0
4.0824829046e-01 4.0824829046e-01 -8.1649658093e-01
4.0824829046e-01 4.0824829046e-01 -8.1649658093e-01
4.0824829046e-01 4.0824829046e-01 -8.1649658093e-01
4.0824829046e-01 4.0824829046e-01 -8.1649658093e-01
4.0824829046e-01 4.0824829046e-01 -8.1649658093e-01
4.0824829046e-01 4.0824829046e-01 -8.1649658093e-01
4.0824829046e-01 4.0824829046e-01 -8.1649658093e-01
4.0824829046e-01 4.0824829046e-01 -8.1649658093e-01
-4.0824829046e-01 4.0824829046e-01 -8.1649658093e-01
-4.0824829046e-01 4.0824829046e-01 -8.1649658093e-01
-4.0824829046e-01 4.0824829046e-01 -8.1649658093e-01
-4.0824829046e-01 4.0824829046e-01 -8.1649658093e-01
-4.0824829046e-01 -4.0824829046e-01 -8.1649658093e-01
-4.0824829046e-01 -4.0824829046e-01 -8.1649658093e-01
-4.0824829046e-01 -4.0824829046e-01 -8.1649658093e-01
-4.0824829046e-01 -4.0824829046e-01 -8.1649658093e-01
4.0824829046e-01 4.0824829046e-01 -8.1649658093e-01
4.0824829046e-01 4.0824829046e-01 -8.1649658093e-01
4.0824829046e-01 4.0824829046e-01 -8.1649658093e-01
4.0824829046e-01 4.0824829046e-01 -8.1649658093e-01
-4.0824829046e-01 -4.0824829046e-01 -8.1649658093e-01
-4.0824829046e-01 -4.0824829046e-01 -8.1649658093e-01
-4.0824829046e-01 -4.0824829046e-01 -8.1649658093e-01
-4.0824829046e-01 -4.0824829046e-01 -8.1649658093e-01